201
Atoms. Timestep: 0
1 -0.641035 0.0801125 1.19103
1 -0.637129 -0.840976 1.54442
1 -0.40709 -1.05711 2.4619
1 -0.868379 -1.00359 3.31771
1 -1.35805 -1.1316 4.19246
1 -0.734326 -0.725856 4.77559
1 0.0423864 -0.734341 4.18902
1 0.935455 -0.987365 4.39551
1 0.888728 -0.650397 5.23742
1 1.78139 -0.774575 5.5783
1 1.64994 -1.16505 6.42347
1 1.125 -1.47713 7.18525
1 1.76959 -2.19243 7.12139
1 2.48568 -2.81613 6.87708
1 2.20795 -3.46702 6.09909
1 1.39858 -3.79946 5.68346
1 1.27196 -4.74027 5.543591
1 0.724068 -5.57502 5.24049
1 0.354219 -6.03489 6.03278
1 1.37376 -5.9877 6.00459
1 -0.116272 0.870384 -0.345264
1 0.854033 0.793715 -0.6395
1 1.7895 0.975148 -0.695934
1 1.50842 1.85432 -0.879556
1 1.79692 2.76913 -1.21933
1 1.71461 3.15973 -2.09822
1 2.19425 3.44472 -2.88592
1 3.16484 3.30474 -2.82905
1 3.2341 3.65472 -1.89692
1 2.81961 2.90728 -1.4895
1 2.89654 1.944 -1.36069
1 3.63258 2.41438 -1.84838
1 3.1826 1.78225 -2.38958
1 4.09787 1.58447 -2.60883
1 4.27183 1.54044 -1.68224
1 5.25263 1.58761 -1.64743
1 5.58767 1.32068 -2.51277
1 5.91446 1.18527 -3.34811
1 5.31204 1.8313 -3.80294
1 5.59498 2.73454 -3.97816
1 -0.774827 1.03104 0.398436
1 -0.402183 1.91015 0.200324
1 -0.858363 1.84581 -0.582068
1 -1.60029 2.55566 -0.791069
1 -1.40177 2.96952 0.113923
1 -1.13111 3.00238 1.01293
1 -1.55917 2.18012 1.49774
1 -2.00598 1.48864 1.87529
1 -2.85736 1.5132 1.48216
1 -3.39283 2.32895 1.60632
1 -3.94228 3.05 2.00522
1 -4.21541 2.901 2.99846
1 -4.78821 3.68568 3.02818
1 -5.58042 3.89605 2.58453
1 -6.12927 3.13483 2.26756
1 -7.02105 3.45603 2.14923
1 -7.07815 3.74702 3.08117
1 -7.57892 4.50138 3.27412
1 -7.71827 4.85106 4.2517
1 -7.94766 5.84882 4.22385
1 0.171556 -0.498393 0.632739
1 1.04446 -0.653165 1.15895
1 1.71893 -0.821753 0.490132
1 2.35569 -0.119061 0.448419
1 2.75963 -0.44721 -0.324549
1 3.59066 -0.321479 -0.736011
1 4.41509 0.121491 -0.587687
1 4.90546 0.0811847 0.285881
1 5.59233 -0.225192 0.854419
1 5.3916 -0.796425 1.54593
1 5.99236 -1.48446 1.36364
1 6.34085 -2.23667 0.859149
1 6.70362 -1.71597 0.0456558
1 6.40621 -1.93203 -0.918283
1 5.86571 -1.34564 -1.50071
1 5.57943 -0.430626 -1.88843
1 6.57046 -0.395064 -2.15496
1 7.27157 0.243676 -2.00872
1 7.25991 0.671684 -1.06421
1 7.32634 1.28812 -1.83861
1 -1.39281 0.17914 0.403026
1 -2.29762 0.41751 0.298942
1 -3.03879 0.76692 0.751077
1 -3.61476 0.477606 1.49224
1 -4.56339 0.563633 1.39601
1 -4.6507 -0.0827553 0.703154
1 -5.50984 -0.232017 0.285275
1 -5.79509 -0.353456 1.26982
1 -6.71481 -0.424699 1.16002
1 -6.39508 -1.35833 1.07728
1 -6.2147 -1.9959 1.74683
1 -6.71268 -1.51322 2.38693
1 -7.05085 -0.903696 3.07069
1 -7.98967 -0.904019 3.10053
1 -8.31824 -0.126052 3.65424
1 -8.18021 -0.266511 4.53849
1 -7.5627 -0.931829 4.75889
1 -7.61171 -1.90585 4.67035
1 -8.28923 -2.3163 5.22422
1 -9.15652 -2.52657 4.83239
1 -0.421469 -0.626741 -0.4106
1 -1.15847 -0.939703 -0.976676
1 -1.13304 -1.52724 -1.72073
1 -1.89093 -1.18259 -2.25527
1 -2.139 -1.09145 -3.16089
1 -3.09002 -0.963883 -3.49523
1 -3.17722 -0.568789 -2.538
1 -3.26524 0.242472 -2.05718
1 -3.93782 0.911123 -2.06753
1 -3.95371 1.84773 -1.9662
1 -4.85364 2.19827 -2.25455
1 -5.38278 2.9909 -2.04959
1 -5.96374 2.27443 -1.89528
1 -6.70671 2.88459 -1.87947
1 -6.35246 3.33018 -1.13622
1 -6.13747 3.58225 -0.183931
1 -5.67786 4.40223 -0.418984
1 -5.18533 4.43704 -1.20251
1 -4.30457 4.13261 -0.828145
1 -3.93795 4.06659 0.109816
1 0.269905 0.607082 0.649588
1 1.14708 0.956064 0.43113
1 1.89623 1.58593 0.509777
1 1.50412 1.9175 1.27106
1 2.01828 1.71552 2.02551
1 1.64052 1.4127 2.88881
1 2.27666 1.86528 3.34298
1 3.03143 2.4066 3.32567
1 3.57819 2.87577 2.73449
1 3.74441 3.81947 2.67134
1 2.92923 4.27819 2.93811
1 2.56354 4.46761 3.80192
1 2.73839 5.43547 3.81947
1 2.70376 6.09157 3.11917
1 2.27898 5.8775 2.26144
1 2.26407 4.90967 2.28471
1 1.5349 5.23463 2.87868
1 1.01345 5.86219 3.35458
1 0.412094 5.41611 4.04164
1 1.12955 5.93258 4.41411
1 -1.06894 0.282692 -0.528372
1 -1.64193 0.708265 -1.18556
1 -2.02415 1.47454 -1.68778
1 -2.31919 1.84101 -2.53223
1 -2.05648 2.68607 -2.99431
1 -1.70865 3.22872 -3.7287
1 -2.08266 3.91566 -4.23491
1 -1.17706 3.6835 -4.47936
1 -1.20438 2.99827 -5.1684
1 -1.42342 2.75404 -5.99008
1 -1.36172 1.8003 -5.90092
1 -0.675393 1.33312 -6.43458
1 -0.291131 1.73154 -7.22946
1 -0.398372 2.62871 -6.76044
1 -0.724958 3.4855 -6.44198
1 -1.44084 3.8533 -6.95412
1 -1.36258 4.76275 -6.65756
1 -1.56795 5.72379 -6.5845
1 -1.15636 6.44523 -6.13431
1 -1.08051 5.57665 -5.68621
1 0.36203 -0.0196961 -0.364375
1 0.559855 -0.329111 -1.26774
1 1.30187 -0.805025 -1.52606
1 0.666387 -1.35523 -1.97058
1 0.426377 -2.22776 -2.22927
1 -0.391126 -1.89796 -2.73008
1 -0.494754 -1.42242 -3.49204
1 0.287321 -1.55559 -4.12756
1 1.1567 -1.86391 -4.56868
1 0.85976 -2.65169 -4.1941
1 0.357003 -3.35593 -4.62362
1 0.953592 -4.01421 -4.20026
1 1.30149 -3.45662 -3.47191
1 2.26294 -3.42342 -3.44844
1 2.32448 -4.04793 -2.69855
1 2.38951 -3.36584 -1.95056
1 3.16297 -3.18518 -1.41413
1 3.53726 -3.70343 -2.15693
1 3.19837 -4.62427 -2.25144
1 2.64169 -5.41363 -2.01177
1 -0.791283 -0.736123 0.4771
1 -0.454451 -1.69025 0.458148
1 -0.473065 -2.09885 1.34979
1 -1.31977 -2.46253 1.63536
1 -0.822213 -3.1139 2.09982
1 -1.40045 -3.71385 1.68866
1 -1.26301 -4.67642 1.78427
1 -0.477954 -4.62784 2.38698
1 -0.286119 -4.06331 1.60658
1 -0.0524141 -4.60808 0.861845
1 0.137116 -5.19898 0.118107
1 0.411054 -4.51698 -0.549737
1 0.901167 -4.23071 -1.33142
1 1.49496 -4.34021 -0.653482
1 1.94971 -3.77902 0.00702495
1 1.99813 -3.04736 0.627989
1 2.89127 -3.48836 0.666242
1 3.08086 -2.54489 0.941897
1 3.8725 -2.68481 1.4404
1 4.4285 -3.04813 0.695173
2 -0.427213 0.123257 0.190269
201
Atoms. Timestep: 5000
1 1.1333 1.14171 0.787098
1 2.04621 1.14939 0.912002
1 2.44146 2.02562 1.17979
1 2.3774 2.74461 1.90673
1 2.1934 2.49665 2.82204
1 1.70065 1.71318 2.64976
1 1.14031 2.49298 2.50425
1 0.681535 2.80436 3.33059
1 1.3963 2.36166 3.74836
1 1.10054 3.17303 4.20439
1 1.53694 4.04043 4.48493
1 2.06888 3.41858 5.00416
1 2.64581 2.83666 5.50478
1 2.49138 3.49622 6.20436
1 1.89121 4.21142 6.24012
1 1.28411 3.62773 6.73416
1 1.7142 2.83545 7.24126
1 2.31264 2.50509 7.96678
1 2.49728 3.17452 8.6282
1 1.70125 3.41207 9.13928
1 0.105077 1.58946 0.373647
1 0.00733138 2.0379 1.24053
1 0.1891 2.51725 2.08897
1 0.262724 3.43225 1.7924
1 -0.328598 3.59332 1.07979
1 -1.0042 3.53812 1.84196
1 -0.802391 4.4622 1.60477
1 -1.69065 4.73773 1.94572
1 -2.43331 4.87815 2.59612
1 -2.60935 5.80552 2.87019
1 -2.55568 5.7495 1.89023
1 -1.63333 5.82796 1.94908
1 -1.00926 6.51094 2.18536
1 -0.108291 6.40917 1.81187
1 -0.115168 6.00637 0.957256
1 -0.251525 6.40608 0.0864233
1 -0.373346 5.61189 -0.499032
1 -0.00395922 4.74352 -0.796566
1 -0.0298537 4.98044 -1.75466
1 -0.79027 4.75943 -2.42675
1 0.113085 0.623827 1.21574
1 -0.378899 0.858578 2.04107
1 -0.866177 1.21904 2.81933
1 -0.114786 0.673264 3.19406
1 -0.0466518 -0.269417 3.57722
1 -0.0701856 -0.546418 4.50414
1 -0.761544 0.160574 4.32708
1 -0.287651 0.438594 5.10528
1 -1.15085 0.601043 5.58921
1 -1.17655 1.44153 6.03074
1 -1.78467 1.97294 5.52993
1 -2.30368 2.79694 5.51388
1 -3.10959 3.05914 5.90877
1 -3.21765 3.8226 6.41906
1 -3.00752 4.49224 6.98689
1 -3.6863 4.55875 7.68508
1 -3.96268 5.44457 7.98069
1 -4.85209 5.71022 7.98024
1 -4.80531 4.84162 8.3775
1 -4.64251 3.83833 8.45779
1 1.41873 0.492736 -0.00830515
1 1.92948 -0.201072 0.391062
1 1.49483 -0.708911 -0.377487
1 1.65389 -1.65876 -0.288257
1 2.2291 -2.2784 -0.743503
1 2.05843 -3.24951 -0.465316
1 2.75095 -3.81851 -0.0834383
1 3.5813 -4.21492 -0.0207065
1 4.21619 -4.10947 -0.739889
1 4.99702 -3.62622 -1.06495
1 5.00874 -3.47709 -0.114253
1 5.87847 -3.64759 0.166054
1 5.80692 -4.59933 -0.12375
1 5.70494 -5.42767 -0.664559
1 6.20863 -5.52501 0.117173
1 6.85288 -6.14398 0.529422
1 6.19402 -6.7846 0.557259
1 6.17031 -6.85014 -0.37112
1 6.0012 -6.30172 -1.07449
1 6.91661 -6.0339 -0.956255
1 -0.577492 0.701796 0.320572
1 -1.37514 0.981146 -0.069201
1 -1.87115 1.75636 -0.341963
1 -2.74132 1.62587 0.0850674
1 -3.39987 1.24312 0.726501
1 -4.19119 0.812622 1.05008
1 -4.09695 -0.130447 1.24223
1 -4.37912 -0.933544 0.752607
1 -5.07632 -0.331367 1.07118
1 -5.62611 -1.06857 1.37139
1 -6.08331 -0.689997 2.08989
1 -5.169 -0.853805 2.38071
1 -5.71881 -1.11323 3.16549
1 -5.84741 -0.670087 4.03434
1 -5.417 -1.54165 4.08233
1 -5.32482 -2.23006 4.74255
1 -6.13884 -2.52364 5.23744
1 -5.58797 -2.34305 6.20288
1 -5.77998 -2.84253 7.01521
1 -6.65131 -3.03932 7.43207
1 -0.0594686 -0.116267 0.401698
1 0.185811 -0.996282 -0.0267623
1 -0.216174 -1.52411 -0.750059
1 -0.595914 -1.04241 -1.55713
1 -1.46186 -0.709925 -1.77644
1 -1.31256 -1.56287 -2.27821
1 -1.95707 -1.84701 -2.99286
1 -1.96068 -2.41164 -2.20358
1 -2.34412 -3.11533 -2.84353
1 -2.51113 -3.47256 -3.76588
1 -2.57861 -4.29372 -3.3942
1 -1.7836 -4.76831 -3.54321
1 -1.72159 -4.90186 -4.489
1 -2.55618 -5.38613 -4.58105
1 -2.91975 -4.52392 -4.51033
1 -3.13871 -3.63351 -4.79634
1 -3.87349 -4.08648 -5.16706
1 -4.22559 -3.66583 -5.90819
1 -4.49632 -3.21728 -6.70812
1 -3.76961 -3.91065 -6.78148
1 0.942249 1.35346 -0.313253
1 1.57583 1.29145 -1.04251
1 2.43909 1.55019 -0.691751
1 2.52075 0.810509 -1.29057
1 2.86221 -0.0172526 -1.68126
1 3.65029 0.242823 -1.17649
1 4.37993 -0.0212635 -0.559091
1 4.67388 -0.472521 0.210546
1 4.99544 -1.10619 0.878862
1 5.35617 -0.807232 1.76456
1 5.69288 -0.045999 1.36049
1 6.36249 0.399434 0.785376
1 5.93453 1.04633 0.231947
1 6.10858 1.3397 -0.724818
1 6.00801 1.97697 -1.43614
1 5.66923 2.82839 -1.25904
1 4.75743 2.84951 -1.70212
1 3.9224 3.29192 -1.48721
1 3.78681 2.29244 -1.37722
1 3.1171 2.47674 -0.713283
1 0.0998598 1.00472 -0.573795
1 -0.543067 1.6924 -0.762773
1 -1.0362 1.79982 -1.57842
1 -0.73906 1.71286 -2.5048
1 -0.564448 2.01377 -3.39369
1 -1.23192 2.03886 -4.07261
1 -1.7363 1.20794 -4.04391
1 -2.45447 1.63268 -4.53803
1 -2.65978 2.65408 -4.45069
1 -2.10233 3.3888 -4.71821
1 -2.50032 4.25348 -4.36699
1 -2.47901 5.1296 -4.6971
1 -2.1968 5.88133 -5.19528
1 -1.81481 6.76738 -5.60214
1 -1.3175 6.75538 -6.38114
1 -2.10457 6.42624 -6.78871
1 -2.84968 7.10615 -6.93611
1 -3.00423 7.99993 -6.71802
1 -2.96161 7.97594 -7.73433
1 -2.45306 8.78133 -8.0585
1 0.540803 0.0448107 -0.43415
1 0.758902 -0.0791915 -1.37722
1 0.710723 0.278867 -2.26969
1 0.613974 -0.443685 -2.91031
1 0.964378 -1.42121 -2.74799
1 1.39359 -1.43027 -3.58463
1 1.39902 -2.38681 -3.47921
1 1.90884 -3.18329 -3.6058
1 1.57821 -4.07419 -3.89164
1 1.23337 -3.58817 -4.66747
1 0.498172 -3.06274 -4.74562
1 1.00514 -3.1719 -5.57044
1 1.84963 -2.55754 -5.61122
1 1.29286 -1.77104 -5.45637
1 1.31661 -1.44923 -6.38245
1 0.410373 -1.10671 -6.28367
1 0.0367668 -0.231335 -6.1944
1 -0.609022 -0.0939464 -5.51501
1 -0.335211 -1.04557 -5.39275
1 -0.169232 -0.997208 -4.44257
1 0.924383 -0.0834597 0.738617
1 0.869103 -0.460738 1.61342
1 0.143394 -0.811486 2.11443
1 -0.667069 -1.26918 2.30923
1 -1.49758 -1.44105 1.82704
1 -0.902265 -1.9332 1.26852
1 -0.824921 -1.46976 0.473601
1 -1.76438 -1.61778 0.19471
1 -1.9894 -0.856 -0.375217
1 -2.44536 -1.05259 -1.17493
1 -2.44575 -1.83711 -0.631626
1 -2.80677 -2.30327 0.0740056
1 -3.52874 -2.17461 0.694435
1 -3.89388 -2.87126 0.258783
1 -3.57236 -2.89557 -0.684212
1 -3.97058 -3.8206 -0.692855
1 -4.78619 -4.01424 -0.266225
1 -4.08483 -4.49913 0.182608
1 -4.72044 -4.99392 0.730143
1 -5.02798 -5.71745 0.0770035
2 0.481788 0.67155 0.274463
201
Atoms. Timestep: 10000
1 0.173312 -0.538233 0.257985
1 1.02643 -0.889645 0.460975
1 1.90712 -0.399648 0.462533
1 2.51515 0.316075 0.501959
1 3.15258 0.375064 1.18586
1 3.76146 1.06905 0.904699
1 4.58514 0.676656 0.589176
1 5.22941 1.38346 0.894678
1 5.07759 1.78696 -0.0382015
1 5.83396 1.86958 -0.523627
1 6.72874 2.30447 -0.405553
1 7.48749 1.72616 -0.688985
1 7.16899 0.862019 -0.969403
1 7.24885 0.115636 -0.378673
1 6.44578 -0.164532 0.116941
1 5.62162 -0.622458 0.00848132
1 5.11482 -1.08579 0.716219
1 4.55413 -1.36539 0.0379175
1 4.2237 -1.56182 -0.873863
1 4.56224 -1.69412 -1.81988
1 -0.625395 0.516729 0.512251
1 -0.615784 1.09163 1.24328
1 0.124281 1.61558 1.50487
1 0.732077 2.10871 2.01616
1 0.725029 3.08627 1.85619
1 0.296348 3.50862 2.56711
1 0.82323 4.37544 2.71872
1 0.924128 4.4032 3.66028
1 1.02315 5.17072 4.10868
1 1.54141 5.50131 4.83608
1 2.15349 5.95791 5.42074
1 2.96659 6.50224 5.581
1 2.88067 5.96907 6.39632
1 3.2629 5.16011 6.59085
1 2.46864 5.17094 7.08962
1 2.98947 5.04856 7.93443
1 2.84326 6.0379 7.93025
1 1.89332 6.28921 7.95239
1 2.13447 6.63431 8.76428
1 1.43273 5.91601 8.81359
1 0.430346 0.444186 0.545627
1 1.17969 0.0579862 1.03615
1 1.22431 -0.412535 1.84954
1 1.16569 -0.143806 2.88512
1 0.925971 0.120382 3.75504
1 1.29873 -0.469794 4.43505
1 0.537315 -0.41999 5.04149
1 -0.394845 -0.371074 5.00212
1 -0.539855 -0.634817 5.92608
1 -0.943765 -0.541982 6.87404
1 -0.41227 -1.22886 7.33143
1 -1.25567 -1.16178 7.76639
1 -1.14009 -1.96921 8.27037
1 -0.848528 -2.78907 7.97088
1 -0.399862 -3.57946 7.8785
1 0.0264557 -3.35351 7.08465
1 -0.207687 -4.34185 6.95458
1 -0.663027 -4.26373 6.06811
1 -1.42311 -3.6967 6.41176
1 -1.69762 -4.41505 6.99841
1 0.813349 -0.132649 -0.286413
1 1.5734 -0.734606 -0.479994
1 1.81356 -1.52688 -0.942896
1 1.49803 -2.41112 -1.09649
1 0.640755 -2.79011 -0.754945
1 1.06966 -2.15037 -0.0557543
1 0.70396 -2.26428 0.838415
1 0.906352 -3.05715 1.32092
1 1.82521 -3.36163 1.49506
1 2.71638 -3.31805 1.12974
1 2.82486 -4.12789 1.77933
1 2.97942 -4.89046 1.25437
1 2.40752 -5.65086 1.29741
1 3.00159 -6.41849 1.2157
1 3.33768 -6.61526 2.19765
1 4.27974 -6.58333 2.55628
1 3.87429 -7.12086 3.2313
1 3.14923 -7.64411 3.67794
1 3.31809 -8.39558 4.21606
1 2.63778 -7.90094 4.58041
1 -0.870099 -0.374923 -0.060409
1 -1.40066 -0.984202 0.594678
1 -1.76182 -0.297038 1.19896
1 -1.9834 0.513825 1.73136
1 -2.85047 0.811274 1.87319
1 -3.56508 1.11508 2.41479
1 -4.32947 0.719372 2.73565
1 -4.46073 1.31639 3.48945
1 -5.2943 0.79039 3.51219
1 -5.25968 1.42035 4.25101
1 -5.86385 2.10509 4.56095
1 -6.25253 2.61949 5.32249
1 -6.87584 2.39947 6.04398
1 -7.82593 2.37043 6.02143
1 -8.01726 2.36644 5.04689
1 -7.76683 3.21759 4.7342
1 -7.17399 4.01806 4.89725
1 -7.368 4.75731 4.29504
1 -6.4862 4.54047 3.87233
1 -6.99574 4.58442 3.02748
1 -0.186375 -0.548471 -0.668212
1 -0.645623 -0.994158 -1.48368
1 -1.43057 -1.59181 -1.56445
1 -1.20228 -1.52911 -0.647964
1 -0.460172 -1.93758 -0.263858
1 -0.460214 -2.63502 0.380334
1 -1.38276 -2.48718 0.168033
1 -2.28493 -2.49232 0.404674
1 -2.96951 -3.12683 0.509996
1 -3.26424 -3.34708 1.40643
1 -3.78611 -2.97126 2.11059
1 -3.67174 -2.84546 3.03298
1 -3.46459 -3.69356 3.45159
1 -2.47572 -3.77344 3.06206
1 -1.98645 -4.55085 2.79627
1 -2.78891 -4.53412 2.30082
1 -3.59293 -4.9104 1.92639
1 -4.41503 -5.06468 1.36883
1 -4.03383 -5.93706 1.3886
1 -3.80372 -5.45489 0.522287
1 0.633821 0.924942 -0.379852
1 0.858602 1.45587 -1.092
1 1.7905 1.75276 -0.793126
1 2.22785 2.48073 -1.20121
1 2.45131 3.34806 -0.914665
1 3.09757 3.8091 -1.58678
1 3.53793 4.69827 -1.44504
1 3.4379 5.23549 -0.643993
1 2.96923 5.00353 0.169509
1 3.4954 5.2681 0.968991
1 3.72752 6.06577 0.582946
1 4.63166 6.20198 0.32756
1 4.00452 6.80361 -0.201917
1 3.86146 7.64289 -0.680128
1 4.09835 8.2353 -1.44274
1 3.31964 7.77971 -1.73525
1 3.35308 7.08103 -2.42904
1 4.16389 6.55832 -2.6538
1 4.436 7.37392 -2.99438
1 4.93139 6.72831 -3.46684
1 -0.430936 1.2833 -0.217096
1 -0.846612 2.01277 -0.708494
1 -1.39422 1.3702 -1.1524
1 -1.86838 0.829292 -1.74502
1 -2.65408 1.04428 -2.3761
1 -2.73468 0.268426 -2.93353
1 -3.28065 -0.175586 -3.58835
1 -3.95135 -0.220535 -4.32751
1 -3.26405 -0.110861 -5.04157
1 -3.36861 0.279856 -5.91215
1 -3.69908 0.473687 -6.85563
1 -4.15138 0.681406 -7.68615
1 -4.22626 0.774478 -8.69175
1 -3.27866 0.977182 -8.99362
1 -3.60892 1.78242 -9.35993
1 -3.1903 2.37558 -10.135
1 -2.57013 2.77768 -10.6499
1 -1.76668 3.08342 -11.1306
1 -1.20568 3.08258 -10.3959
1 -0.605738 2.49625 -10.803
1 0.267196 0.427752 -1.18892
1 0.0875238 -0.0942244 -1.89544
1 0.170013 -0.32851 -2.8472
1 0.930162 0.244021 -3.02746
1 1.50095 0.743074 -3.62693
1 1.40158 0.470781 -4.5602
1 0.723682 -0.197733 -4.81443
1 0.255457 -0.113975 -5.6839
1 0.339301 0.798492 -5.94593
1 0.214602 1.64906 -5.49618
1 0.783144 1.70129 -6.22807
1 0.820105 1.33215 -7.08185
1 0.859136 1.58228 -8.05139
1 0.73461 1.45171 -8.98939
1 0.30073 0.708493 -8.56323
1 -0.505976 0.241999 -8.14462
1 -0.775631 -0.550406 -8.66978
1 -0.71633 0.236222 -9.3155
1 -1.04891 0.360946 -10.2799
1 -0.559246 1.21984 -10.4937
1 -0.889189 0.540851 -0.745422
1 -1.53038 1.09516 -0.16573
1 -2.45906 0.782695 -0.346005
1 -2.81969 -0.0618659 -0.778236
1 -3.66916 -0.0393507 -1.27463
1 -3.0112 -0.418951 -1.89396
1 -2.32836 -0.836762 -2.41575
1 -2.95729 -1.36588 -3.06237
1 -3.3657 -1.75362 -3.82926
1 -4.29261 -1.4339 -4.23973
1 -4.5596 -1.99772 -3.49982
1 -4.08639 -2.26178 -2.74588
1 -4.81516 -2.18675 -2.13748
1 -4.98523 -2.38357 -1.20323
1 -4.79632 -1.5566 -0.854428
1 -5.2132 -0.805879 -0.478663
1 -5.3908 -0.785964 -1.44067
1 -5.915 -0.0512004 -1.21607
1 -6.58414 0.0542256 -0.592192
1 -7.07157 0.94576 -0.605978
2 -0.106569 0.29458 -0.251815
201
Atoms. Timestep: 15000
1 0.693699 -0.236515 0.195841
1 0.69841 -0.951336 -0.47429
1 1.43294 -1.18468 0.107421
1 1.60298 -0.366392 -0.454291
1 2.21077 0.267899 -0.00957031
1 2.92354 -0.205319 0.42798
1 3.76239 0.061803 0.858957
1 3.65594 -0.757853 1.52118
1 4.25052 -0.139632 1.93748
1 4.65551 -0.701105 1.20528
1 5.53722 -0.276148 0.942017
1 6.35764 0.247001 0.640005
1 6.59194 -0.168416 -0.190216
1 7.47698 -0.656677 -0.409852
1 8.25535 -0.240204 -0.0325512
1 8.04124 -0.882527 0.596913
1 7.54781 -1.64367 0.950667
1 7.62561 -2.01383 0.0546593
1 7.49014 -2.81357 -0.523071
1 8.05647 -3.36498 0.0311726
1 -0.340777 1.15393 -0.187268
1 -0.711299 1.93676 0.26671
1 -1.64959 2.13704 0.562775
1 -1.60047 3.08731 0.761654
1 -1.36939 3.29947 -0.170657
1 -2.16994 3.60058 -0.63171
1 -2.30247 4.54628 -0.42435
1 -2.63794 5.15892 -1.04139
1 -2.89473 4.94723 -1.97608
1 -3.19739 5.85574 -1.82128
1 -3.67818 6.35753 -1.08092
1 -3.34997 6.50038 -0.219132
1 -2.9439 7.07548 -0.848262
1 -3.11316 7.99086 -0.435788
1 -2.4568 8.05488 -1.12908
1 -1.65864 8.42346 -0.824226
1 -0.975542 8.92595 -1.29498
1 -0.630475 9.56809 -1.83844
1 0.138432 9.24074 -1.24458
1 -0.366896 9.7466 -0.526649
1 -0.407771 0.888473 0.846398
1 -0.80976 0.96618 1.79628
1 -0.0888591 0.724537 2.41594
1 0.624464 0.614358 1.79301
1 1.28659 0.0105962 2.1925
1 1.98917 -0.203082 2.8342
1 2.28661 0.433766 3.53251
1 3.07684 -0.066811 3.85347
1 2.43281 -0.615086 4.36228
1 2.23198 -1.12104 5.11265
1 1.91612 -1.95045 5.63517
1 1.11441 -1.4566 5.99667
1 0.522675 -2.08779 5.48441
1 -0.300328 -1.97032 4.90564
1 -0.849125 -2.67975 5.18948
1 -0.319 -2.99791 5.92742
1 -0.254002 -3.963 5.89663
1 0.0831085 -4.35116 6.81259
1 0.3569 -3.5192 7.26065
1 0.885288 -3.30546 6.50985
1 0.166504 -0.0635445 -0.865559
1 -0.302895 -0.0147481 -1.72387
1 -0.275817 -0.391557 -2.61327
1 -0.583635 -0.99131 -3.39451
1 -1.31002 -0.537671 -3.88407
1 -1.87907 -1.34635 -3.90027
1 -1.64766 -2.00765 -3.23384
1 -0.844546 -2.35904 -2.90426
1 -0.642028 -2.30533 -3.8347
1 0.263801 -2.33019 -3.70573
1 0.898405 -1.64719 -4.00387
1 1.18436 -0.764613 -3.73513
1 1.9477 -0.513491 -4.37311
1 1.29121 -0.120395 -4.90149
1 0.710655 -0.775121 -5.24496
1 0.335794 -0.759823 -6.11238
1 0.682021 -0.804645 -7.03141
1 1.45705 -1.39223 -6.74355
1 1.74829 -1.15737 -7.58638
1 2.50587 -0.666702 -7.45821
1 -1.18454 0.54831 0.21214
1 -1.82665 0.887121 -0.434755
1 -1.65545 1.88228 -0.457351
1 -2.41384 1.62174 -1.10199
1 -3.17476 1.34378 -1.55243
1 -4.04759 1.81418 -1.88047
1 -4.7194 2.31746 -1.43368
1 -4.5436 3.13143 -0.944532
1 -3.71201 2.75477 -0.808654
1 -2.79465 2.54119 -0.693811
1 -3.23569 2.36931 0.190286
1 -3.69315 2.71774 0.95675
1 -4.26992 3.165 1.48682
1 -3.77977 3.64959 2.15873
1 -3.4367 4.48855 2.43154
1 -3.07271 5.26939 2.82736
1 -2.30654 5.77929 3.08388
1 -2.07483 4.84962 3.01351
1 -1.61774 4.85914 2.13321
1 -1.25229 4.1538 2.67151
1 -0.348111 -0.603879 -0.158705
1 -1.00651 -1.08929 0.375919
1 -1.69623 -1.70582 0.777476
1 -1.8089 -2.46067 0.2713
1 -1.14871 -3.13219 0.512302
1 -1.92874 -3.57355 0.215602
1 -2.54853 -3.84584 0.85668
1 -2.33035 -4.77765 0.899979
1 -1.99906 -5.0365 1.79987
1 -1.2786 -4.55468 2.3375
1 -0.614156 -4.87227 1.55811
1 -0.675517 -5.85167 1.40102
1 -0.571156 -6.84641 1.20108
1 -0.833377 -7.77509 1.44697
1 -1.76542 -7.98218 1.14935
1 -2.33544 -8.12749 1.85368
1 -2.96772 -7.43271 1.64473
1 -3.00507 -8.10413 0.867016
1 -3.72058 -8.1555 1.53734
1 -4.15564 -7.32788 1.36329
1 0.558145 0.826784 0.478996
1 0.987953 1.60276 -0.000940856
1 0.610526 2.48798 -0.0431941
1 0.133062 3.061 0.567808
1 0.660774 3.27539 1.38698
1 1.54997 3.61427 0.929376
1 2.11309 3.89999 0.169601
1 2.89597 4.06842 0.735315
1 3.57904 3.42818 0.614551
1 4.39901 3.50411 1.19433
1 5.21162 3.86975 1.68201
1 5.51529 3.97788 2.65615
1 4.83343 4.05017 3.33049
1 5.12291 4.01966 4.23259
1 5.47683 4.81414 3.87641
1 5.79955 5.24297 3.06252
1 5.37623 5.00152 2.24474
1 6.38154 5.15935 2.23027
1 6.53651 4.24337 2.10295
1 6.38291 4.27146 1.16441
1 -0.833077 0.15307 -0.585164
1 -1.3097 -0.529823 -0.989444
1 -2.03891 -0.862893 -1.43463
1 -2.9442 -0.688148 -1.45166
1 -3.7802 -0.374407 -1.15527
1 -4.63587 -0.941912 -0.915579
1 -4.71877 -1.33043 -1.82211
1 -5.67214 -1.37501 -1.75003
1 -5.50181 -2.29458 -1.86007
1 -5.96484 -2.78978 -2.51588
1 -6.91413 -2.84077 -2.69661
1 -7.84143 -2.76441 -2.70914
1 -7.44766 -1.93483 -2.75519
1 -8.32173 -1.59877 -2.84737
1 -8.45193 -0.999287 -3.59017
1 -7.48312 -0.900905 -3.71364
1 -6.71047 -0.390754 -3.85805
1 -7.06039 -0.409352 -4.8077
1 -7.50612 0.440865 -4.94125
1 -6.79913 1.05233 -5.31636
1 0.527807 0.811941 -0.466744
1 0.930969 0.589825 -1.26815
1 1.5892 -0.151691 -1.4384
1 1.72687 -1.07666 -1.60302
1 1.80278 -1.04403 -2.62214
1 2.38698 -1.49404 -3.1926
1 3.32487 -1.38802 -3.12828
1 4.14629 -0.944524 -3.3296
1 4.29974 0.0362447 -3.46999
1 4.03661 0.971752 -3.37985
1 3.3718 1.70354 -3.13642
1 3.32622 1.2496 -2.29201
1 3.64689 0.531093 -1.74457
1 4.42503 0.843798 -2.19746
1 5.25461 1.39888 -2.2338
1 6.01091 0.843606 -1.90406
1 6.93915 0.973296 -2.23124
1 6.67398 1.85756 -2.66726
1 6.13926 2.4365 -2.11758
1 6.48611 1.75698 -1.59099
1 -0.16725 -0.30002 0.915957
1 -0.609229 -0.906426 1.51042
1 -1.44045 -1.09225 2.02114
1 -1.62342 -0.159492 2.10815
1 -2.03969 0.431657 2.77971
1 -1.68845 1.36935 2.72947
1 -2.65618 1.44311 2.91372
1 -3.46619 2.04113 2.92346
1 -4.18311 1.59325 3.38506
1 -4.83261 1.04847 3.65906
1 -5.41121 0.243028 3.57143
1 -4.50452 -0.00254784 3.74875
1 -5.06847 -0.301823 4.51385
1 -5.27098 -1.22752 4.85942
1 -4.93757 -1.82096 4.14279
1 -4.53595 -1.32921 3.40574
1 -4.49818 -0.655611 2.7523
1 -5.04888 0.0243073 2.32116
1 -5.98947 -0.265145 2.02944
1 -6.20635 0.500411 2.56963
2 -0.164515 0.287597 0.069202
201
Atoms. Timestep: 20000
1 0.440934 0.186224 0.506897
1 0.408045 -0.784708 0.223415
1 1.32908 -0.877026 0.00592822
1 2.30156 -0.906961 -0.348131
1 2.43296 -1.84904 -0.0703283
1 1.81068 -2.61988 0.127819
1 2.59248 -3.0792 -0.243001
1 3.00865 -2.70315 0.5234
1 3.83407 -3.2286 0.321485
1 4.01108 -3.41445 -0.570747
1 4.3549 -4.29436 -0.1881
1 4.44341 -4.39781 0.71843
1 4.91343 -4.6532 1.54765
1 5.21483 -3.67797 1.34717
1 5.30981 -3.33438 2.21606
1 4.40402 -3.0171 1.92405
1 3.71534 -2.42357 1.54912
1 3.39674 -3.18066 2.02883
1 2.94219 -3.78684 1.45551
1 2.41999 -4.41236 0.831528
1 0.259162 2.01566 0.289514
1 0.0312996 2.33967 -0.562012
1 0.947367 2.61966 -0.784138
1 0.876357 2.92759 -1.75176
1 0.818681 2.59458 -2.63714
1 0.586895 3.22725 -3.37406
1 0.761555 2.88517 -4.24892
1 1.73474 2.97913 -4.3964
1 2.50042 2.69175 -4.9
1 1.73798 2.72736 -5.55298
1 2.35006 3.40145 -5.93703
1 2.32886 4.32038 -6.10352
1 2.45752 5.26555 -6.36006
1 2.15627 5.45587 -5.41402
1 1.62519 6.04047 -5.93923
1 2.1018 6.12209 -6.80376
1 2.87529 5.77372 -7.41046
1 2.05722 5.2246 -7.47747
1 1.8882 5.78384 -8.22625
1 1.02691 5.82899 -8.53218
1 -0.122013 1.26647 1.26649
1 0.114901 0.894692 2.12707
1 -0.462709 0.834868 2.92648
1 -0.877703 0.355266 3.6679
1 0.00123472 0.0415462 3.78748
1 -0.12193 -0.27888 4.70114
1 0.386917 0.187923 5.39267
1 -0.0501127 -0.33819 6.03334
1 0.0374368 -1.2941 5.77652
1 -0.774171 -1.7852 5.852
1 0.0146444 -2.31381 5.45583
1 0.870254 -2.60472 5.10675
1 1.31962 -3.2456 5.77943
1 2.16103 -2.78328 5.55593
1 2.2139 -2.75161 6.52439
1 2.84148 -2.03262 6.33264
1 2.00301 -1.56772 6.40269
1 1.89121 -0.62401 6.49343
1 0.894635 -0.307957 6.35418
1 0.733606 0.314019 6.9851
1 -0.00787654 0.565621 -0.528589
1 -0.46026 0.635903 -1.35789
1 -0.855019 -0.0883056 -1.87226
1 -0.839717 -1.04016 -1.9604
1 -0.188767 -1.78098 -2.00685
1 0.370589 -2.12025 -2.64816
1 -0.51042 -2.50872 -2.77351
1 0.117985 -2.66162 -3.49162
1 -0.233602 -3.57968 -3.2541
1 0.378036 -4.26974 -2.91757
1 -0.459445 -4.69794 -2.92566
1 -0.754635 -5.36465 -3.63731
1 -1.50716 -4.85112 -3.22058
1 -2.07277 -5.66481 -3.16398
1 -2.88745 -5.23102 -2.86911
1 -3.72951 -4.98398 -3.33201
1 -4.60423 -4.49247 -3.20968
1 -4.79259 -4.0748 -2.38619
1 -4.13223 -3.78229 -1.7226
1 -3.84243 -3.31401 -2.51105
1 -0.778597 1.57872 0.626268
1 -1.49072 1.80958 1.17835
1 -1.38052 2.46215 1.96095
1 -0.56555 2.79514 1.62915
1 -0.22913 3.73584 1.79136
1 -0.79068 3.92327 2.44077
1 -0.902608 4.85444 2.30418
1 -0.979035 4.67654 1.36787
1 -1.88886 4.65519 1.24825
1 -2.68699 5.15069 1.50619
1 -2.85025 5.89867 2.09057
1 -2.56572 6.68799 2.5444
1 -1.78309 7.09432 2.98907
1 -1.33592 8.01088 3.0874
1 -1.73257 7.89463 2.24004
1 -1.61506 8.09848 1.36365
1 -0.799116 8.59255 1.28534
1 -0.661574 8.9539 0.384363
1 -1.59612 9.34407 0.33868
1 -1.29904 10.2953 0.435522
1 -0.920859 0.653397 0.0425353
1 -1.3483 -0.172604 0.0317545
1 -1.29078 -0.57094 -0.837049
1 -2.11304 -1.0574 -0.702677
1 -2.64178 -0.878446 0.0788408
1 -3.20524 -0.696606 -0.652815
1 -2.88801 -1.24861 -1.41941
1 -3.19395 -1.67487 -0.529805
1 -3.75765 -2.45559 -0.470687
1 -3.74904 -3.40559 -0.110256
1 -2.93914 -3.40859 0.43251
1 -2.71451 -2.49571 0.588195
1 -2.37463 -2.46975 1.47258
1 -1.70387 -2.18958 0.796457
1 -1.29799 -3.06971 0.469905
1 -0.877974 -3.2921 -0.331981
1 -1.27826 -4.08669 -0.712541
1 -1.97922 -4.35507 -0.1553
1 -2.45537 -4.23713 -0.985915
1 -2.36756 -3.33064 -1.12166
1 0.757794 1.1926 0.738819
1 1.49918 1.72388 0.243461
1 1.80609 1.3884 1.13759
1 2.54242 1.82855 1.60741
1 2.02902 2.34781 2.23185
1 2.01972 3.13296 2.84998
1 1.85254 4.04934 2.5049
1 1.01005 3.77466 2.76943
1 0.335988 3.50643 3.30379
1 0.435866 2.60172 3.6936
1 -0.329964 2.25884 4.13347
1 -0.777134 3.06073 4.22962
1 -1.4955 2.79852 3.60722
1 -2.01461 3.64202 3.74369
1 -2.47201 4.51124 3.75724
1 -3.06936 4.88321 4.42082
1 -3.94162 5.02992 4.87087
1 -4.74701 5.5079 4.5347
1 -5.19486 6.23358 4.08984
1 -4.36622 6.59491 4.35743
1 -0.566109 1.5465 -0.365373
1 -1.52365 1.46478 -0.258994
1 -1.44519 2.40882 -0.406829
1 -1.2911 3.23661 -0.844046
1 -1.75009 3.86957 -1.47915
1 -2.1347 3.02577 -1.43024
1 -2.80321 2.43202 -1.70946
1 -2.96707 1.8026 -2.47358
1 -3.8968 1.83748 -2.73364
1 -4.41584 2.15365 -3.45487
1 -5.32063 2.15502 -3.11039
1 -5.7045 2.56942 -3.89186
1 -5.35833 1.72174 -4.00502
1 -5.77228 0.796315 -3.82589
1 -6.37084 1.12745 -4.46546
1 -5.75179 1.21538 -5.18312
1 -5.28371 0.397671 -4.87034
1 -4.41893 -0.0695019 -4.96132
1 -3.98917 -0.595435 -4.2149
1 -4.84965 -1.0915 -4.03961
1 0.649836 1.28582 -0.349424
1 1.12294 0.375958 -0.433611
1 1.25114 0.364381 -1.38407
1 1.88789 -0.314618 -1.53275
1 2.30938 -0.658192 -2.28709
1 3.24236 -0.378516 -1.96403
1 3.379 0.581358 -1.97867
1 2.65897 1.14233 -1.71508
1 3.50272 1.40627 -1.3391
1 2.84573 2.08389 -1.4291
1 2.30574 2.88693 -1.34601
1 2.95569 3.09865 -0.608308
1 3.83459 2.78903 -0.420244
1 4.37967 3.49113 0.0123409
1 4.37604 4.19614 0.658202
1 4.95419 4.71942 0.044413
1 5.67961 4.05763 0.0412628
1 5.09847 3.77339 -0.725805
1 5.83575 3.73051 -1.38678
1 6.34488 2.89097 -1.2995
1 -0.542965 0.270807 0.868948
1 -0.133633 -0.176298 1.65647
1 -0.977951 -0.730369 1.89021
1 -0.582723 -1.58301 2.19704
1 0.00751188 -2.29405 1.89213
1 -0.32129 -3.17949 1.51635
1 0.40276 -3.77675 1.50335
1 -0.139744 -4.21345 0.812465
1 -0.434894 -4.86074 1.52042
1 -0.863978 -5.65287 1.69304
1 -1.47126 -6.26055 2.10402
1 -2.09166 -6.68434 2.75038
1 -2.80202 -6.09216 3.01343
1 -3.37442 -5.34439 3.34297
1 -3.32325 -4.49043 2.92275
1 -2.64397 -5.07086 2.39493
1 -3.58348 -5.09155 2.09765
1 -3.14709 -5.89549 1.91664
1 -2.60639 -6.36359 1.2836
1 -1.85485 -6.91432 1.36555
2 -0.0528427 1.04487 0.350418
201
Atoms. Timestep: 25000
1 -0.46176 -0.43583 0.402855
1 0.0392883 -1.1122 0.831651
1 0.539614 -1.17805 1.66408
1 1.42783 -0.879692 1.57132
1 2.04916 -0.867505 2.30387
1 2.71819 -0.371028 2.71135
1 3.58913 -0.652987 2.46173
1 4.39061 0.00598938 2.78776
1 5.15351 -0.179025 2.21764
1 4.88957 0.753497 2.1143
1 4.83412 1.45859 2.7843
1 4.0477 1.53639 2.23834
1 3.97648 2.19755 1.47381
1 3.5283 1.85246 0.659158
1 3.28962 2.80163 0.643997
1 3.92156 3.45252 0.352279
1 4.31102 3.4328 -0.494964
1 4.67782 2.79125 -1.28682
1 4.46593 2.65934 -2.2194
1 3.56502 2.82037 -1.75993
1 -0.142419 0.472849 0.374046
1 0.174716 1.00543 1.06236
1 1.02561 1.39129 0.766073
1 1.12357 2.37207 1.07473
1 0.565835 2.62749 1.84172
1 1.05658 3.46383 1.82336
1 0.611301 3.60755 0.950995
1 0.0706791 3.98845 1.68662
1 -0.876179 4.03718 2.03615
1 -0.560769 5.03175 1.97084
1 -1.33934 5.59972 1.99817
1 -1.31372 6.5458 1.75754
1 -0.414358 6.6483 1.86101
1 -0.979744 7.31593 2.27233
1 -1.0377 8.05578 2.80107
1 -1.57231 8.25243 1.91657
1 -1.58536 9.18473 1.71551
1 -1.87216 10.1082 1.59999
1 -2.52275 10.7 1.99954
1 -2.66183 10.1493 2.85801
1 -1.24335 -0.222916 1.00263
1 -1.64878 -0.994091 1.36749
1 -2.50921 -0.982865 1.83131
1 -2.05028 -0.628316 2.58619
1 -1.869 -0.987983 3.45832
1 -1.12892 -1.56588 3.3346
1 -1.19766 -2.35268 2.76386
1 -0.187173 -2.48197 2.68475
1 0.266236 -1.73833 2.93395
1 1.26748 -1.54822 2.89489
1 1.68098 -2.37688 3.07604
1 1.88694 -2.69143 3.96511
1 2.15303 -2.3795 4.85063
1 1.21903 -2.39962 5.04254
1 0.936285 -2.61764 5.93257
1 0.356289 -2.80442 5.20662
1 -0.189769 -2.56968 5.94292
1 0.100301 -3.48662 6.22775
1 -0.675634 -3.74443 5.59261